<?xml version="1.0" ?> 
<!-- 
# vtk DataFile Version 3.0
-->
<VTKFile type="UnstructuredGrid" version="0.1" compressor="vtkZLibDataCompressor" byte_order="LittleEndian">
  <UnstructuredGrid>
    <FieldData>
      <DataArray type="Float64" Name="TIME" NumberOfTuples="1" format="ascii">
2.400000000000001e+00 
      </DataArray>
    </FieldData>

    <Piece NumberOfPoints="6" NumberOfCells="3" >
      <Points>
        <DataArray type="Float64" NumberOfComponents="3" format="ascii">
0.000000000000000e+00 -5.000000000000000e-01 0.000000000000000e+00
0.000000000000000e+00 -4.500000000000000e-01 0.000000000000000e+00
0.000000000000000e+00 -4.500000000000000e-01 0.000000000000000e+00
-2.500000000000000e-01 -4.500000000000000e-01 0.000000000000000e+00
0.000000000000000e+00 -4.500000000000000e-01 0.000000000000000e+00
2.500000000000000e-01 -4.500000000000000e-01 0.000000000000000e+00
        </DataArray>
      </Points>

      <Cells>
        <DataArray type="Int32" Name="connectivity" format="ascii">
0 1 2 3 4 5 
        </DataArray>
        <DataArray type="Int32" Name="offsets" format="ascii">
2 4 6 
        </DataArray>
        <DataArray type="UInt8" Name="types" format="ascii">
3 3 3 
        </DataArray>
      </Cells>

  <PointData>
        <DataArray type="Float64" Name="pressure" format="ascii">
1.200000000000000e+00
1.212397108206685e+00
1.212397108206685e+00
1.243389878723394e+00
1.212397108206685e+00
1.243389878723399e+00
        </DataArray>
  </PointData>
  <CellData>
        <DataArray type="Float64" Name="Owner" format="ascii">
1.000000000000000e+00
1.000000000000000e+00
1.000000000000000e+00
        </DataArray>
        <DataArray type="Float64" Name="ele_radius" format="ascii">
2.500000000000000e-02
2.500000000000000e-02
2.500000000000000e-02
        </DataArray>
        <DataArray type="Float64" Name="ele_volflow" format="ascii">
-9.508462907196888e-03
-4.754231453598051e-03
-4.754231453598800e-03
        </DataArray>
      </CellData>

    </Piece>
  </UnstructuredGrid>
</VTKFile>
