<?xml version="1.0" ?> 
<!-- 
# vtk DataFile Version 3.0
-->
<VTKFile type="UnstructuredGrid" version="0.1" compressor="vtkZLibDataCompressor" byte_order="LittleEndian">
  <UnstructuredGrid>
    <FieldData>
      <DataArray type="Float64" Name="TIME" NumberOfTuples="1" format="ascii">
1.000000000000000e-01 
      </DataArray>
    </FieldData>

    <Piece NumberOfPoints="135" NumberOfCells="5" >
      <Points>
        <DataArray type="Float64" NumberOfComponents="3" format="ascii">
-5.000000000000000e-01 -5.000000000000000e-01 -1.000000000000000e+00
5.000000000000000e-01 -5.000000000000000e-01 -1.000000000000000e+00
5.000000000000000e-01 -3.000000000000000e-01 -1.000000000000000e+00
-5.000000000000000e-01 -3.000000000000000e-01 -1.000000000000000e+00
-5.000000000000000e-01 -5.000000000000000e-01 -3.250000000000000e-01
5.000000000000000e-01 -5.000000000000000e-01 -3.250000000000000e-01
5.000000000000000e-01 -3.000000000000000e-01 -3.250000000000000e-01
-5.000000000000000e-01 -3.000000000000000e-01 -3.250000000000000e-01
0.000000000000000e+00 -5.000000000000000e-01 -1.000000000000000e+00
5.000000000000000e-01 -4.000000000000000e-01 -1.000000000000000e+00
0.000000000000000e+00 -3.000000000000000e-01 -1.000000000000000e+00
-5.000000000000000e-01 -4.000000000000000e-01 -1.000000000000000e+00
0.000000000000000e+00 -5.000000000000000e-01 -3.250000000000000e-01
5.000000000000000e-01 -4.000000000000000e-01 -3.250000000000000e-01
0.000000000000000e+00 -3.000000000000000e-01 -3.250000000000000e-01
-5.000000000000000e-01 -4.000000000000000e-01 -3.250000000000000e-01
-5.000000000000000e-01 -5.000000000000000e-01 -6.625000000000001e-01
5.000000000000000e-01 -5.000000000000000e-01 -6.625000000000001e-01
5.000000000000000e-01 -3.000000000000000e-01 -6.625000000000001e-01
-5.000000000000000e-01 -3.000000000000000e-01 -6.625000000000001e-01
-5.000000000000000e-01 -4.000000000000000e-01 -6.624999999999999e-01
5.000000000000000e-01 -4.000000000000000e-01 -6.624999999999999e-01
0.000000000000000e+00 -5.000000000000000e-01 -6.624999999999999e-01
0.000000000000000e+00 -3.000000000000000e-01 -6.624999999999998e-01
0.000000000000000e+00 -4.000000000000000e-01 -1.000000000000000e+00
0.000000000000000e+00 -4.000000000000000e-01 -3.250000000000000e-01
0.000000000000000e+00 -4.000000000000000e-01 -6.625000000000002e-01
-5.000000000000000e-01 -3.000000000000000e-01 -1.000000000000000e+00
5.000000000000000e-01 -3.000000000000000e-01 -1.000000000000000e+00
5.000000000000000e-01 -1.000000000000000e-01 -1.000000000000000e+00
-5.000000000000000e-01 -1.000000000000000e-01 -1.000000000000000e+00
-5.000000000000000e-01 -3.000000000000000e-01 -3.250000000000000e-01
5.000000000000000e-01 -3.000000000000000e-01 -3.250000000000000e-01
5.000000000000000e-01 -1.000000000000000e-01 -3.250000000000000e-01
-5.000000000000000e-01 -1.000000000000000e-01 -3.250000000000000e-01
0.000000000000000e+00 -3.000000000000000e-01 -1.000000000000000e+00
5.000000000000000e-01 -2.000000000000000e-01 -1.000000000000000e+00
0.000000000000000e+00 -1.000000000000000e-01 -1.000000000000000e+00
-5.000000000000000e-01 -2.000000000000000e-01 -1.000000000000000e+00
0.000000000000000e+00 -3.000000000000000e-01 -3.250000000000000e-01
5.000000000000000e-01 -2.000000000000000e-01 -3.250000000000000e-01
0.000000000000000e+00 -1.000000000000000e-01 -3.250000000000001e-01
-5.000000000000000e-01 -2.000000000000000e-01 -3.250000000000000e-01
-5.000000000000000e-01 -3.000000000000000e-01 -6.625000000000001e-01
5.000000000000000e-01 -3.000000000000000e-01 -6.625000000000001e-01
5.000000000000000e-01 -1.000000000000000e-01 -6.625000000000001e-01
-5.000000000000000e-01 -1.000000000000000e-01 -6.625000000000001e-01
-5.000000000000000e-01 -2.000000000000000e-01 -6.624999999999999e-01
5.000000000000000e-01 -2.000000000000000e-01 -6.624999999999999e-01
0.000000000000000e+00 -3.000000000000000e-01 -6.624999999999998e-01
0.000000000000000e+00 -1.000000000000001e-01 -6.624999999999998e-01
0.000000000000000e+00 -2.000000000000000e-01 -1.000000000000000e+00
0.000000000000000e+00 -2.000000000000000e-01 -3.250000000000001e-01
0.000000000000000e+00 -1.999999999999999e-01 -6.625000000000003e-01
-5.000000000000000e-01 -1.000000000000000e-01 -1.000000000000000e+00
5.000000000000000e-01 -1.000000000000000e-01 -1.000000000000000e+00
5.000000000000000e-01 1.000000000000000e-01 -1.000000000000000e+00
-5.000000000000000e-01 1.000000000000000e-01 -1.000000000000000e+00
-5.000000000000000e-01 -1.000000000000000e-01 -3.250000000000000e-01
5.000000000000000e-01 -1.000000000000000e-01 -3.250000000000000e-01
5.000000000000000e-01 1.000000000000000e-01 -3.250000000000000e-01
-5.000000000000000e-01 1.000000000000000e-01 -3.250000000000000e-01
0.000000000000000e+00 -1.000000000000000e-01 -1.000000000000000e+00
5.000000000000001e-01 -5.204170427930421e-17 -1.000000000000000e+00
0.000000000000000e+00 1.000000000000000e-01 -1.000000000000000e+00
-5.000000000000001e-01 -5.204170427930421e-17 -1.000000000000000e+00
0.000000000000000e+00 -1.000000000000000e-01 -3.250000000000001e-01
5.000000000000001e-01 -5.204170427930421e-17 -3.250000000000001e-01
0.000000000000000e+00 1.000000000000000e-01 -3.250000000000001e-01
-5.000000000000001e-01 -5.204170427930421e-17 -3.250000000000001e-01
-5.000000000000000e-01 -1.000000000000000e-01 -6.625000000000001e-01
5.000000000000000e-01 -1.000000000000000e-01 -6.625000000000001e-01
5.000000000000000e-01 1.000000000000000e-01 -6.625000000000001e-01
-5.000000000000000e-01 1.000000000000000e-01 -6.625000000000001e-01
-5.000000000000000e-01 -4.857225732735060e-17 -6.624999999999999e-01
5.000000000000000e-01 -4.857225732735060e-17 -6.624999999999999e-01
0.000000000000000e+00 -1.000000000000001e-01 -6.624999999999998e-01
0.000000000000000e+00 1.000000000000001e-01 -6.624999999999998e-01
0.000000000000000e+00 -4.857225732735060e-17 -1.000000000000000e+00
0.000000000000000e+00 -4.857225732735060e-17 -3.250000000000000e-01
0.000000000000000e+00 -4.683753385137379e-17 -6.625000000000003e-01
-5.000000000000000e-01 1.000000000000000e-01 -1.000000000000000e+00
5.000000000000000e-01 1.000000000000000e-01 -1.000000000000000e+00
5.000000000000000e-01 3.000000000000000e-01 -1.000000000000000e+00
-5.000000000000000e-01 3.000000000000000e-01 -1.000000000000000e+00
-5.000000000000000e-01 1.000000000000000e-01 -3.250000000000000e-01
5.000000000000000e-01 1.000000000000000e-01 -3.250000000000000e-01
5.000000000000000e-01 3.000000000000000e-01 -3.250000000000000e-01
-5.000000000000000e-01 3.000000000000000e-01 -3.250000000000000e-01
0.000000000000000e+00 1.000000000000000e-01 -1.000000000000000e+00
5.000000000000000e-01 2.000000000000000e-01 -1.000000000000000e+00
0.000000000000000e+00 3.000000000000000e-01 -1.000000000000000e+00
-5.000000000000000e-01 2.000000000000000e-01 -1.000000000000000e+00
0.000000000000000e+00 1.000000000000000e-01 -3.250000000000001e-01
5.000000000000000e-01 2.000000000000000e-01 -3.250000000000001e-01
0.000000000000000e+00 3.000000000000000e-01 -3.250000000000000e-01
-5.000000000000000e-01 2.000000000000000e-01 -3.250000000000001e-01
-5.000000000000000e-01 1.000000000000000e-01 -6.625000000000001e-01
5.000000000000000e-01 1.000000000000000e-01 -6.625000000000001e-01
5.000000000000000e-01 3.000000000000000e-01 -6.625000000000001e-01
-5.000000000000000e-01 3.000000000000000e-01 -6.625000000000001e-01
-5.000000000000000e-01 2.000000000000000e-01 -6.624999999999999e-01
5.000000000000000e-01 2.000000000000000e-01 -6.624999999999999e-01
0.000000000000000e+00 1.000000000000001e-01 -6.624999999999998e-01
0.000000000000000e+00 3.000000000000000e-01 -6.624999999999998e-01
0.000000000000000e+00 2.000000000000000e-01 -1.000000000000000e+00
0.000000000000000e+00 2.000000000000000e-01 -3.250000000000000e-01
0.000000000000000e+00 2.000000000000000e-01 -6.625000000000003e-01
-5.000000000000000e-01 3.000000000000000e-01 -1.000000000000000e+00
5.000000000000000e-01 3.000000000000000e-01 -1.000000000000000e+00
5.000000000000000e-01 5.000000000000000e-01 -1.000000000000000e+00
-5.000000000000000e-01 5.000000000000000e-01 -1.000000000000000e+00
-5.000000000000000e-01 3.000000000000000e-01 -3.250000000000000e-01
5.000000000000000e-01 3.000000000000000e-01 -3.250000000000000e-01
5.000000000000000e-01 5.000000000000000e-01 -3.250000000000000e-01
-5.000000000000000e-01 5.000000000000000e-01 -3.250000000000000e-01
0.000000000000000e+00 3.000000000000000e-01 -1.000000000000000e+00
5.000000000000000e-01 4.000000000000000e-01 -1.000000000000000e+00
0.000000000000000e+00 5.000000000000000e-01 -1.000000000000000e+00
-5.000000000000000e-01 4.000000000000000e-01 -1.000000000000000e+00
0.000000000000000e+00 3.000000000000000e-01 -3.250000000000000e-01
5.000000000000000e-01 4.000000000000000e-01 -3.250000000000000e-01
0.000000000000000e+00 5.000000000000000e-01 -3.250000000000000e-01
-5.000000000000000e-01 4.000000000000000e-01 -3.250000000000000e-01
-5.000000000000000e-01 3.000000000000000e-01 -6.625000000000001e-01
5.000000000000000e-01 3.000000000000000e-01 -6.625000000000001e-01
5.000000000000000e-01 5.000000000000000e-01 -6.625000000000001e-01
-5.000000000000000e-01 5.000000000000000e-01 -6.625000000000001e-01
-5.000000000000000e-01 4.000000000000000e-01 -6.624999999999999e-01
5.000000000000000e-01 4.000000000000000e-01 -6.624999999999999e-01
0.000000000000000e+00 3.000000000000000e-01 -6.624999999999998e-01
0.000000000000000e+00 5.000000000000000e-01 -6.624999999999999e-01
0.000000000000000e+00 4.000000000000000e-01 -1.000000000000000e+00
0.000000000000000e+00 4.000000000000000e-01 -3.250000000000000e-01
0.000000000000000e+00 4.000000000000001e-01 -6.625000000000002e-01
        </DataArray>
      </Points>

      <Cells>
        <DataArray type="Int32" Name="connectivity" format="ascii">
0 1 2 3 4 5 6 7 8 9 10 11 12 13 14 15 16 17 18 19 20 21 22 23 24 25 26 27 28 29 30 31 32 33 34 35 36 37 38 39 40 41 42 43 44 45 46 47 48 49 50 51 52 53 54 55 56 57 58 59 60 61 62 63 64 65 66 67 68 69 70 71 72 73 74 75 76 77 78 79 80 81 82 83 84 85 86 87 88 89 90 91 92 93 94 95 96 97 98 99 100 101 102 103 104 105 106 107 108 109 110 111 112 113 114 115 116 117 118 119 120 121 122 123 124 125 126 127 128 129 130 131 132 133 134 
        </DataArray>
        <DataArray type="Int32" Name="offsets" format="ascii">
27 54 81 108 135 
        </DataArray>
        <DataArray type="UInt8" Name="types" format="ascii">
29 29 29 29 29 
        </DataArray>
      </Cells>

  <PointData>
        <DataArray type="Float64" Name="displacement" NumberOfComponents="3" format="ascii">
0.000000000000000e+00 0.000000000000000e+00 0.000000000000000e+00
0.000000000000000e+00 0.000000000000000e+00 0.000000000000000e+00
0.000000000000000e+00 0.000000000000000e+00 0.000000000000000e+00
0.000000000000000e+00 0.000000000000000e+00 0.000000000000000e+00
1.635075449660366e-05 -1.117184621090594e-05 -6.807229148561284e-03
-1.633399193413489e-05 -1.112894560281184e-05 -6.807168664192066e-03
-1.078392580257803e-05 9.969136773980103e-07 -6.839820090327275e-03
1.079316641156348e-05 9.982871831836906e-07 -6.839763856463084e-03
0.000000000000000e+00 0.000000000000000e+00 0.000000000000000e+00
0.000000000000000e+00 0.000000000000000e+00 0.000000000000000e+00
0.000000000000000e+00 0.000000000000000e+00 0.000000000000000e+00
0.000000000000000e+00 0.000000000000000e+00 0.000000000000000e+00
1.037594221534385e-08 2.446511846234926e-06 -6.869000197681316e-03
-1.488614932557963e-05 9.547508526046966e-07 -6.768228304604018e-03
2.058748115010257e-09 -1.871240105129297e-06 -6.865632515465037e-03
1.490164453191191e-05 9.217667213874442e-07 -6.768114135579139e-03
-1.128056014086896e-05 2.662039778675716e-06 -3.415018702711626e-03
1.127612655431951e-05 2.640220230344980e-06 -3.415042173784083e-03
5.881855703341547e-06 -1.106501719369544e-06 -3.419768590838424e-03
-5.882264877961174e-06 -1.104341332505939e-06 -3.419760938938679e-03
-9.795537316692818e-06 -1.852595171763737e-06 -3.420987230764427e-03
9.792696249996010e-06 -1.864983054221419e-06 -3.420999278834338e-03
-2.449832021539093e-09 -3.825638131979560e-06 -3.434143415831237e-03
-5.040054783126305e-11 -8.334889381677609e-07 -3.430560158409976e-03
0.000000000000000e+00 0.000000000000000e+00 0.000000000000000e+00
7.195216820511494e-09 -2.842321088301725e-06 -6.897767071585111e-03
-1.423507599604318e-09 -1.257682622016931e-06 -3.430214473429847e-03
0.000000000000000e+00 0.000000000000000e+00 0.000000000000000e+00
0.000000000000000e+00 0.000000000000000e+00 0.000000000000000e+00
0.000000000000000e+00 0.000000000000000e+00 0.000000000000000e+00
0.000000000000000e+00 0.000000000000000e+00 0.000000000000000e+00
1.079316641156348e-05 9.982871831836906e-07 -6.839763856463084e-03
-1.078392580257803e-05 9.969136773980103e-07 -6.839820090327275e-03
-9.878862304591290e-06 -2.424322523764068e-06 -6.811704532217633e-03
9.876133330297430e-06 -2.398879729591165e-06 -6.811766954324857e-03
0.000000000000000e+00 0.000000000000000e+00 0.000000000000000e+00
0.000000000000000e+00 0.000000000000000e+00 0.000000000000000e+00
0.000000000000000e+00 0.000000000000000e+00 0.000000000000000e+00
0.000000000000000e+00 0.000000000000000e+00 0.000000000000000e+00
2.058748115010257e-09 -1.871240105129297e-06 -6.865632515465037e-03
-7.842952937968954e-06 -2.847697368151658e-06 -6.896220129989319e-03
-2.431911294348396e-09 1.086954727011611e-06 -6.872976946436691e-03
7.844827042158592e-06 -2.817017431736186e-06 -6.896280674837022e-03
-5.882264877961174e-06 -1.104341332505939e-06 -3.419760938938679e-03
5.881855703341547e-06 -1.106501719369544e-06 -3.419768590838424e-03
6.668168722307376e-06 1.098314336081566e-06 -3.420369150696982e-03
-6.665666605217238e-06 1.097448943324792e-06 -3.420373050330135e-03
-3.514416686770493e-06 1.135955353504954e-06 -3.417502115904031e-03
3.516161124173030e-06 1.139864116773740e-06 -3.417506438543565e-03
-5.040054783126305e-11 -8.334889381677609e-07 -3.430560158409976e-03
1.272328916632306e-09 -7.227388262422248e-07 -3.430083121575298e-03
0.000000000000000e+00 0.000000000000000e+00 0.000000000000000e+00
-2.121086917747960e-09 9.188275739194140e-07 -6.836175987641946e-03
1.053531001630919e-09 -1.129645024790155e-06 -3.431682398536751e-03
0.000000000000000e+00 0.000000000000000e+00 0.000000000000000e+00
0.000000000000000e+00 0.000000000000000e+00 0.000000000000000e+00
0.000000000000000e+00 0.000000000000000e+00 0.000000000000000e+00
0.000000000000000e+00 0.000000000000000e+00 0.000000000000000e+00
9.876133330297430e-06 -2.398879729591165e-06 -6.811766954324857e-03
-9.878862304591290e-06 -2.424322523764068e-06 -6.811704532217633e-03
-9.747479908312383e-06 2.458406412775562e-06 -6.813022396216600e-03
9.747156179944140e-06 2.450736922396550e-06 -6.813027682788119e-03
0.000000000000000e+00 0.000000000000000e+00 0.000000000000000e+00
0.000000000000000e+00 0.000000000000000e+00 0.000000000000000e+00
0.000000000000000e+00 0.000000000000000e+00 0.000000000000000e+00
0.000000000000000e+00 0.000000000000000e+00 0.000000000000000e+00
-2.431911294348396e-09 1.086954727011611e-06 -6.872976946436691e-03
-1.210819194664059e-05 7.504360504894783e-08 -6.734547289973100e-03
-4.595887679642016e-10 -1.107005665143064e-06 -6.872376365897103e-03
1.210445360116446e-05 8.095386374449705e-08 -6.734567641463064e-03
-6.665666605217238e-06 1.097448943324792e-06 -3.420373050330135e-03
6.668168722307376e-06 1.098314336081566e-06 -3.420369150696982e-03
6.581333469144374e-06 -1.155344653330805e-06 -3.420391601653262e-03
-6.579787204598219e-06 -1.151118489931128e-06 -3.420400703158943e-03
-9.599596241695213e-06 -5.364689412703270e-08 -3.423097870115578e-03
9.601889252409515e-06 -5.785420582647854e-08 -3.423087335624828e-03
1.272328916632306e-09 -7.227388262422248e-07 -3.430083121575298e-03
7.724888061475920e-10 7.453082895497769e-07 -3.430072993235059e-03
0.000000000000000e+00 0.000000000000000e+00 0.000000000000000e+00
-1.126990187013411e-09 -3.295692597008718e-08 -6.907791652353627e-03
1.035484437896960e-09 2.349162327232178e-08 -3.428600571737455e-03
0.000000000000000e+00 0.000000000000000e+00 0.000000000000000e+00
0.000000000000000e+00 0.000000000000000e+00 0.000000000000000e+00
0.000000000000000e+00 0.000000000000000e+00 0.000000000000000e+00
0.000000000000000e+00 0.000000000000000e+00 0.000000000000000e+00
9.747156179944140e-06 2.450736922396550e-06 -6.813027682788119e-03
-9.747479908312383e-06 2.458406412775562e-06 -6.813022396216600e-03
-1.067948861421200e-05 -1.073902285429393e-06 -6.839951621974916e-03
1.067871301784000e-05 -1.091804217851767e-06 -6.839961271383535e-03
0.000000000000000e+00 0.000000000000000e+00 0.000000000000000e+00
0.000000000000000e+00 0.000000000000000e+00 0.000000000000000e+00
0.000000000000000e+00 0.000000000000000e+00 0.000000000000000e+00
0.000000000000000e+00 0.000000000000000e+00 0.000000000000000e+00
-4.595887679642016e-10 -1.107005665143064e-06 -6.872376365897103e-03
-7.652615645528815e-06 2.738009811816027e-06 -6.897900342899936e-03
-7.481146793772719e-10 1.915639334616384e-06 -6.865550303973530e-03
7.654992255786110e-06 2.722480532989594e-06 -6.897905939146211e-03
-6.579787204598219e-06 -1.151118489931128e-06 -3.420400703158943e-03
6.581333469144374e-06 -1.155344653330805e-06 -3.420391601653262e-03
5.818431610332694e-06 1.097015620646066e-06 -3.419850960293549e-03
-5.818302464903511e-06 1.100676550962839e-06 -3.419851173952342e-03
-3.391076832732303e-06 -1.123499467197751e-06 -3.417559240693455e-03
3.391761034467063e-06 -1.126330284987819e-06 -3.417555094602697e-03
7.724888061475920e-10 7.453082895497769e-07 -3.430072993235059e-03
7.341207689070192e-11 8.351308101667149e-07 -3.430521198724805e-03
0.000000000000000e+00 0.000000000000000e+00 0.000000000000000e+00
-3.573994583643348e-10 -8.769030563375084e-07 -6.835404709094581e-03
4.596840197057821e-10 1.122568807033465e-06 -3.431659998190160e-03
0.000000000000000e+00 0.000000000000000e+00 0.000000000000000e+00
0.000000000000000e+00 0.000000000000000e+00 0.000000000000000e+00
0.000000000000000e+00 0.000000000000000e+00 0.000000000000000e+00
0.000000000000000e+00 0.000000000000000e+00 0.000000000000000e+00
1.067871301784000e-05 -1.091804217851767e-06 -6.839961271383535e-03
-1.067948861421200e-05 -1.073902285429393e-06 -6.839951621974916e-03
-1.637099044567415e-05 1.143303246212853e-05 -6.807991962908342e-03
1.636812251647263e-05 1.140804865707970e-05 -6.807945173475112e-03
0.000000000000000e+00 0.000000000000000e+00 0.000000000000000e+00
0.000000000000000e+00 0.000000000000000e+00 0.000000000000000e+00
0.000000000000000e+00 0.000000000000000e+00 0.000000000000000e+00
0.000000000000000e+00 0.000000000000000e+00 0.000000000000000e+00
-7.481146793772719e-10 1.915639334616384e-06 -6.865550303973530e-03
-1.489623486428582e-05 -8.760035212340929e-07 -6.767280679843671e-03
-2.269547612445192e-09 -2.585767644814284e-06 -6.868645358151257e-03
1.489189694507808e-05 -8.954904648981817e-07 -6.767279181994898e-03
-5.818302464903511e-06 1.100676550962839e-06 -3.419851173952342e-03
5.818431610332694e-06 1.097015620646066e-06 -3.419850960293549e-03
1.136358312325295e-05 -2.852190543634954e-06 -3.414929176422604e-03
-1.136386158790861e-05 -2.844604245515502e-06 -3.414926440098953e-03
-9.822289062749669e-06 1.775583609780352e-06 -3.421049306049531e-03
9.822115529131307e-06 1.769969916715479e-06 -3.421051540356592e-03
7.341207689070192e-11 8.351308101667149e-07 -3.430521198724805e-03
-3.508763597087682e-11 3.917519333178549e-06 -3.434189752061166e-03
0.000000000000000e+00 0.000000000000000e+00 0.000000000000000e+00
-1.447056655804795e-09 2.827168730772750e-06 -6.898176177877802e-03
-1.652156118261262e-10 1.295834313898689e-06 -3.430187486221105e-03
        </DataArray>
      </PointData>

    </Piece>
  </UnstructuredGrid>
</VTKFile>
