<?xml version="1.0" ?> 
<!-- 
# vtk DataFile Version 3.0
-->
<VTKFile type="UnstructuredGrid" version="0.1" compressor="vtkZLibDataCompressor" byte_order="LittleEndian">
  <UnstructuredGrid>
    <FieldData>
      <DataArray type="Float64" Name="TIME" NumberOfTuples="1" format="ascii">
1.000000000000000e-01 
      </DataArray>
    </FieldData>

    <Piece NumberOfPoints="116" NumberOfCells="17" >
      <Points>
        <DataArray type="Float64" NumberOfComponents="3" format="ascii">
5.000000000000000e-01 -1.666666666670000e-01 -4.166666666670000e-01
5.000000000000000e-01 -3.333333333330000e-01 -2.500000000000000e-01
5.000000000000000e-01 -1.666666666670000e-01 -8.333333333329999e-02
5.000000000000000e-01 0.000000000000000e+00 -2.500000000000000e-01
-5.000000000000000e-01 -1.666666666670000e-01 -4.166666666670000e-01
-5.000000000000000e-01 -3.333333333330000e-01 -2.500000000000000e-01
-5.000000000000000e-01 -1.666666666670000e-01 -8.333333333329999e-02
-5.000000000000000e-01 0.000000000000000e+00 -2.500000000000000e-01
5.000000000000000e-01 1.666666666670000e-01 -4.166666666670000e-01
5.000000000000000e-01 0.000000000000000e+00 -2.500000000000000e-01
5.000000000000000e-01 1.666666666670000e-01 -8.333333333329999e-02
5.000000000000000e-01 3.333333333330000e-01 -2.500000000000000e-01
-5.000000000000000e-01 1.666666666670000e-01 -4.166666666670000e-01
-5.000000000000000e-01 0.000000000000000e+00 -2.500000000000000e-01
-5.000000000000000e-01 1.666666666670000e-01 -8.333333333329999e-02
-5.000000000000000e-01 3.333333333330000e-01 -2.500000000000000e-01
5.000000000000000e-01 -3.333333333330000e-01 -2.500000000000000e-01
5.000000000000000e-01 -5.000000000000000e-01 -8.333333333329999e-02
5.000000000000000e-01 -3.333333333330000e-01 8.333333333329999e-02
5.000000000000000e-01 -1.666666666670000e-01 -8.333333333329999e-02
-5.000000000000000e-01 -3.333333333330000e-01 -2.500000000000000e-01
-5.000000000000000e-01 -5.000000000000000e-01 -8.333333333329999e-02
-5.000000000000000e-01 -3.333333333330000e-01 8.333333333329999e-02
-5.000000000000000e-01 -1.666666666670000e-01 -8.333333333329999e-02
5.000000000000000e-01 0.000000000000000e+00 -2.500000000000000e-01
5.000000000000000e-01 -1.666666666670000e-01 -8.333333333329999e-02
5.000000000000000e-01 0.000000000000000e+00 8.333333333329999e-02
5.000000000000000e-01 1.666666666670000e-01 -8.333333333329999e-02
-5.000000000000000e-01 0.000000000000000e+00 -2.500000000000000e-01
-5.000000000000000e-01 -1.666666666670000e-01 -8.333333333329999e-02
-5.000000000000000e-01 0.000000000000000e+00 8.333333333329999e-02
-5.000000000000000e-01 1.666666666670000e-01 -8.333333333329999e-02
5.000000000000000e-01 3.333333333330000e-01 -2.500000000000000e-01
5.000000000000000e-01 1.666666666670000e-01 -8.333333333329999e-02
5.000000000000000e-01 3.333333333330000e-01 8.333333333329999e-02
5.000000000000000e-01 5.000000000000000e-01 -8.333333333329999e-02
-5.000000000000000e-01 3.333333333330000e-01 -2.500000000000000e-01
-5.000000000000000e-01 1.666666666670000e-01 -8.333333333329999e-02
-5.000000000000000e-01 3.333333333330000e-01 8.333333333329999e-02
-5.000000000000000e-01 5.000000000000000e-01 -8.333333333329999e-02
5.000000000000000e-01 -1.666666666670000e-01 -8.333333333329999e-02
5.000000000000000e-01 -3.333333333330000e-01 8.333333333329999e-02
5.000000000000000e-01 -1.666666666670000e-01 2.500000000000000e-01
5.000000000000000e-01 0.000000000000000e+00 8.333333333329999e-02
-5.000000000000000e-01 -1.666666666670000e-01 -8.333333333329999e-02
-5.000000000000000e-01 -3.333333333330000e-01 8.333333333329999e-02
-5.000000000000000e-01 -1.666666666670000e-01 2.500000000000000e-01
-5.000000000000000e-01 0.000000000000000e+00 8.333333333329999e-02
5.000000000000000e-01 1.666666666670000e-01 -8.333333333329999e-02
5.000000000000000e-01 0.000000000000000e+00 8.333333333329999e-02
5.000000000000000e-01 1.666666666670000e-01 2.500000000000000e-01
5.000000000000000e-01 3.333333333330000e-01 8.333333333329999e-02
-5.000000000000000e-01 1.666666666670000e-01 -8.333333333329999e-02
-5.000000000000000e-01 0.000000000000000e+00 8.333333333329999e-02
-5.000000000000000e-01 1.666666666670000e-01 2.500000000000000e-01
-5.000000000000000e-01 3.333333333330000e-01 8.333333333329999e-02
5.000000000000000e-01 5.000000000000000e-01 -4.166666666670000e-01
5.000000000000000e-01 3.333333333330000e-01 -2.500000000000000e-01
5.000000000000000e-01 5.000000000000000e-01 -8.333333333329999e-02
-5.000000000000000e-01 5.000000000000000e-01 -4.166666666670000e-01
-5.000000000000000e-01 3.333333333330000e-01 -2.500000000000000e-01
-5.000000000000000e-01 5.000000000000000e-01 -8.333333333329999e-02
5.000000000000000e-01 5.000000000000000e-01 -8.333333333329999e-02
5.000000000000000e-01 3.333333333330000e-01 8.333333333329999e-02
5.000000000000000e-01 5.000000000000000e-01 2.500000000000000e-01
-5.000000000000000e-01 5.000000000000000e-01 -8.333333333329999e-02
-5.000000000000000e-01 3.333333333330000e-01 8.333333333329999e-02
-5.000000000000000e-01 5.000000000000000e-01 2.500000000000000e-01
5.000000000000000e-01 -5.000000000000000e-01 -4.166666666670000e-01
5.000000000000000e-01 -5.000000000000000e-01 -8.333333333329999e-02
5.000000000000000e-01 -3.333333333330000e-01 -2.500000000000000e-01
-5.000000000000000e-01 -5.000000000000000e-01 -4.166666666670000e-01
-5.000000000000000e-01 -5.000000000000000e-01 -8.333333333329999e-02
-5.000000000000000e-01 -3.333333333330000e-01 -2.500000000000000e-01
5.000000000000000e-01 -5.000000000000000e-01 -8.333333333329999e-02
5.000000000000000e-01 -5.000000000000000e-01 2.500000000000000e-01
5.000000000000000e-01 -3.333333333330000e-01 8.333333333329999e-02
-5.000000000000000e-01 -5.000000000000000e-01 -8.333333333329999e-02
-5.000000000000000e-01 -5.000000000000000e-01 2.500000000000000e-01
-5.000000000000000e-01 -3.333333333330000e-01 8.333333333329999e-02
5.000000000000000e-01 -3.333333333330000e-01 8.333333333329999e-02
5.000000000000000e-01 -5.000000000000000e-01 2.500000000000000e-01
5.000000000000000e-01 -1.666666666670000e-01 2.500000000000000e-01
-5.000000000000000e-01 -3.333333333330000e-01 8.333333333329999e-02
-5.000000000000000e-01 -5.000000000000000e-01 2.500000000000000e-01
-5.000000000000000e-01 -1.666666666670000e-01 2.500000000000000e-01
5.000000000000000e-01 0.000000000000000e+00 8.333333333329999e-02
5.000000000000000e-01 -1.666666666670000e-01 2.500000000000000e-01
5.000000000000000e-01 1.666666666670000e-01 2.500000000000000e-01
-5.000000000000000e-01 0.000000000000000e+00 8.333333333329999e-02
-5.000000000000000e-01 -1.666666666670000e-01 2.500000000000000e-01
-5.000000000000000e-01 1.666666666670000e-01 2.500000000000000e-01
5.000000000000000e-01 3.333333333330000e-01 8.333333333329999e-02
5.000000000000000e-01 1.666666666670000e-01 2.500000000000000e-01
5.000000000000000e-01 5.000000000000000e-01 2.500000000000000e-01
-5.000000000000000e-01 3.333333333330000e-01 8.333333333329999e-02
-5.000000000000000e-01 1.666666666670000e-01 2.500000000000000e-01
-5.000000000000000e-01 5.000000000000000e-01 2.500000000000000e-01
5.000000000000000e-01 1.666666666670000e-01 -4.166666666670000e-01
5.000000000000000e-01 3.333333333330000e-01 -2.500000000000000e-01
5.000000000000000e-01 5.000000000000000e-01 -4.166666666670000e-01
-5.000000000000000e-01 1.666666666670000e-01 -4.166666666670000e-01
-5.000000000000000e-01 3.333333333330000e-01 -2.500000000000000e-01
-5.000000000000000e-01 5.000000000000000e-01 -4.166666666670000e-01
5.000000000000000e-01 -1.666666666670000e-01 -4.166666666670000e-01
5.000000000000000e-01 0.000000000000000e+00 -2.500000000000000e-01
5.000000000000000e-01 1.666666666670000e-01 -4.166666666670000e-01
-5.000000000000000e-01 -1.666666666670000e-01 -4.166666666670000e-01
-5.000000000000000e-01 0.000000000000000e+00 -2.500000000000000e-01
-5.000000000000000e-01 1.666666666670000e-01 -4.166666666670000e-01
5.000000000000000e-01 -5.000000000000000e-01 -4.166666666670000e-01
5.000000000000000e-01 -3.333333333330000e-01 -2.500000000000000e-01
5.000000000000000e-01 -1.666666666670000e-01 -4.166666666670000e-01
-5.000000000000000e-01 -5.000000000000000e-01 -4.166666666670000e-01
-5.000000000000000e-01 -3.333333333330000e-01 -2.500000000000000e-01
-5.000000000000000e-01 -1.666666666670000e-01 -4.166666666670000e-01
        </DataArray>
      </Points>

      <Cells>
        <DataArray type="Int32" Name="connectivity" format="ascii">
0 1 2 3 4 5 6 7 8 9 10 11 12 13 14 15 16 17 18 19 20 21 22 23 24 25 26 27 28 29 30 31 32 33 34 35 36 37 38 39 40 41 42 43 44 45 46 47 48 49 50 51 52 53 54 55 56 57 58 59 60 61 62 63 64 65 66 67 68 69 70 71 72 73 74 75 76 77 78 79 80 81 82 83 84 85 86 87 88 89 90 91 92 93 94 95 96 97 98 99 100 101 102 103 104 105 106 107 108 109 110 111 112 113 114 115 
        </DataArray>
        <DataArray type="Int32" Name="offsets" format="ascii">
8 16 24 32 40 48 56 62 68 74 80 86 92 98 104 110 116 
        </DataArray>
        <DataArray type="UInt8" Name="types" format="ascii">
12 12 12 12 12 12 12 13 13 13 13 13 13 13 13 13 13 
        </DataArray>
      </Cells>

  <PointData>
        <DataArray type="Float64" Name="displacement" NumberOfComponents="3" format="ascii">
-1.027834913190699e-05 -3.750864957756744e-07 -5.925984755213924e-03
-7.920931109622496e-06 -2.263407343921593e-07 -7.638063829077502e-03
-2.581139295728322e-06 1.360193891006663e-07 -9.318030239605469e-03
-1.043691955488193e-05 8.110460585034037e-09 -7.633417806586260e-03
1.026167526775375e-05 -3.595973789220884e-07 -5.925751577538695e-03
7.937097989688850e-06 -2.228459426396852e-07 -7.638142871370472e-03
2.603946901631412e-06 1.194507674234387e-07 -9.317946536216953e-03
1.044073516734730e-05 6.162539733693352e-10 -7.633318001428739e-03
-9.970695760444161e-06 3.681422408149656e-07 -5.925758168019345e-03
-1.043691955488193e-05 8.110460585034037e-09 -7.633417806586260e-03
-2.552467804578090e-06 -1.027223714596201e-07 -9.318006127809520e-03
-7.892284678241480e-06 2.335971748198454e-07 -7.638175596240459e-03
9.965830861480797e-06 3.532202056590486e-07 -5.925887747469397e-03
1.044073516734730e-05 6.162539733693352e-10 -7.633318001428739e-03
2.570919677814102e-06 -1.062761781436540e-07 -9.317973393262900e-03
7.895086522693596e-06 2.196259027722299e-07 -7.638117635161608e-03
-7.920931109622496e-06 -2.263407343921593e-07 -7.638063829077502e-03
-2.889529574540894e-06 2.865508794632027e-06 -9.316874483361288e-03
-1.645714910561259e-06 1.499622657253694e-06 -1.101341213869922e-02
-2.581139295728322e-06 1.360193891006663e-07 -9.318030239605469e-03
7.937097989688850e-06 -2.228459426396852e-07 -7.638142871370472e-03
2.913648909764385e-06 2.889191587140875e-06 -9.316861762365708e-03
1.683106738683549e-06 1.492469132835602e-06 -1.101338969564319e-02
2.603946901631412e-06 1.194507674234387e-07 -9.317946536216953e-03
-1.043691955488193e-05 8.110460585034037e-09 -7.633417806586260e-03
-2.581139295728322e-06 1.360193891006663e-07 -9.318030239605469e-03
-1.742724182731224e-06 1.816065104895499e-08 -1.101310266577650e-02
-2.552467804578090e-06 -1.027223714596201e-07 -9.318006127809520e-03
1.044073516734730e-05 6.162539733693352e-10 -7.633318001428739e-03
2.603946901631412e-06 1.194507674234387e-07 -9.317946536216953e-03
1.778179688254714e-06 1.560882395239086e-08 -1.101304480771837e-02
2.570919677814102e-06 -1.062761781436540e-07 -9.317973393262900e-03
-7.892284678241480e-06 2.335971748198454e-07 -7.638175596240459e-03
-2.552467804578090e-06 -1.027223714596201e-07 -9.318006127809520e-03
-1.640882755804932e-06 -1.458815217464292e-06 -1.101345111702669e-02
-2.882950622002929e-06 -2.857409216265377e-06 -9.316927008318716e-03
7.895086522693596e-06 2.196259027722299e-07 -7.638117635161608e-03
2.570919677814102e-06 -1.062761781436540e-07 -9.317973393262900e-03
1.672538240254199e-06 -1.461948017954299e-06 -1.101340565272635e-02
2.897596000156787e-06 -2.857858786108464e-06 -9.316890634789665e-03
-2.581139295728322e-06 1.360193891006663e-07 -9.318030239605469e-03
-1.645714910561259e-06 1.499622657253694e-06 -1.101341213869922e-02
-1.181882158764102e-06 5.097626252710782e-07 -1.270483130591448e-02
-1.742724182731224e-06 1.816065104895499e-08 -1.101310266577650e-02
2.603946901631412e-06 1.194507674234387e-07 -9.317946536216953e-03
1.683106738683549e-06 1.492469132835602e-06 -1.101338969564319e-02
1.233330847823375e-06 4.914297530849126e-07 -1.270477633173827e-02
1.778179688254714e-06 1.560882395239086e-08 -1.101304480771837e-02
-2.552467804578090e-06 -1.027223714596201e-07 -9.318006127809520e-03
-1.742724182731224e-06 1.816065104895499e-08 -1.101310266577650e-02
-1.176343300838475e-06 -4.513201534636266e-07 -1.270483815147381e-02
-1.640882755804932e-06 -1.458815217464292e-06 -1.101345111702669e-02
2.570919677814102e-06 -1.062761781436540e-07 -9.317973393262900e-03
1.778179688254714e-06 1.560882395239086e-08 -1.101304480771837e-02
1.225955856376754e-06 -4.521153764626903e-07 -1.270478969457554e-02
1.672538240254199e-06 -1.461948017954299e-06 -1.101340565272635e-02
-2.268936497812868e-05 4.237686250871745e-06 -5.931962780229809e-03
-7.892284678241480e-06 2.335971748198454e-07 -7.638175596240459e-03
-2.882950622002929e-06 -2.857409216265377e-06 -9.316927008318716e-03
2.267819335320404e-05 4.206324794876150e-06 -5.931959847882891e-03
7.895086522693596e-06 2.196259027722299e-07 -7.638117635161608e-03
2.897596000156787e-06 -2.857858786108464e-06 -9.316890634789665e-03
-2.882950622002929e-06 -2.857409216265377e-06 -9.316927008318716e-03
-1.640882755804932e-06 -1.458815217464292e-06 -1.101345111702669e-02
-9.836036709565240e-07 -1.637136888322578e-06 -1.270562916599883e-02
2.897596000156787e-06 -2.857858786108464e-06 -9.316890634789665e-03
1.672538240254199e-06 -1.461948017954299e-06 -1.101340565272635e-02
1.029494325966806e-06 -1.638170912402805e-06 -1.270558569049337e-02
-2.261603746550823e-05 -4.183384280476988e-06 -5.931974976713799e-03
-2.889529574540894e-06 2.865508794632027e-06 -9.316874483361288e-03
-7.920931109622496e-06 -2.263407343921593e-07 -7.638063829077502e-03
2.263289911227264e-05 -4.257381900192712e-06 -5.931861008088199e-03
2.913648909764385e-06 2.889191587140875e-06 -9.316861762365708e-03
7.937097989688850e-06 -2.228459426396852e-07 -7.638142871370472e-03
-2.889529574540894e-06 2.865508794632027e-06 -9.316874483361288e-03
-9.874875702008498e-07 1.700532901709590e-06 -1.270556760675038e-02
-1.645714910561259e-06 1.499622657253694e-06 -1.101341213869922e-02
2.913648909764385e-06 2.889191587140875e-06 -9.316861762365708e-03
1.035106194548888e-06 1.676275303295435e-06 -1.270556213798111e-02
1.683106738683549e-06 1.492469132835602e-06 -1.101338969564319e-02
-1.645714910561259e-06 1.499622657253694e-06 -1.101341213869922e-02
-9.874875702008498e-07 1.700532901709590e-06 -1.270556760675038e-02
-1.181882158764102e-06 5.097626252710782e-07 -1.270483130591448e-02
1.683106738683549e-06 1.492469132835602e-06 -1.101338969564319e-02
1.035106194548888e-06 1.676275303295435e-06 -1.270556213798111e-02
1.233330847823375e-06 4.914297530849126e-07 -1.270477633173827e-02
-1.742724182731224e-06 1.816065104895499e-08 -1.101310266577650e-02
-1.181882158764102e-06 5.097626252710782e-07 -1.270483130591448e-02
-1.176343300838475e-06 -4.513201534636266e-07 -1.270483815147381e-02
1.778179688254714e-06 1.560882395239086e-08 -1.101304480771837e-02
1.233330847823375e-06 4.914297530849126e-07 -1.270477633173827e-02
1.225955856376754e-06 -4.521153764626903e-07 -1.270478969457554e-02
-1.640882755804932e-06 -1.458815217464292e-06 -1.101345111702669e-02
-1.176343300838475e-06 -4.513201534636266e-07 -1.270483815147381e-02
-9.836036709565240e-07 -1.637136888322578e-06 -1.270562916599883e-02
1.672538240254199e-06 -1.461948017954299e-06 -1.101340565272635e-02
1.225955856376754e-06 -4.521153764626903e-07 -1.270478969457554e-02
1.029494325966806e-06 -1.638170912402805e-06 -1.270558569049337e-02
-9.970695760444161e-06 3.681422408149656e-07 -5.925758168019345e-03
-7.892284678241480e-06 2.335971748198454e-07 -7.638175596240459e-03
-2.268936497812868e-05 4.237686250871745e-06 -5.931962780229809e-03
9.965830861480797e-06 3.532202056590486e-07 -5.925887747469397e-03
7.895086522693596e-06 2.196259027722299e-07 -7.638117635161608e-03
2.267819335320404e-05 4.206324794876150e-06 -5.931959847882891e-03
-1.027834913190699e-05 -3.750864957756744e-07 -5.925984755213924e-03
-1.043691955488193e-05 8.110460585034037e-09 -7.633417806586260e-03
-9.970695760444161e-06 3.681422408149656e-07 -5.925758168019345e-03
1.026167526775375e-05 -3.595973789220884e-07 -5.925751577538695e-03
1.044073516734730e-05 6.162539733693352e-10 -7.633318001428739e-03
9.965830861480797e-06 3.532202056590486e-07 -5.925887747469397e-03
-2.261603746550823e-05 -4.183384280476988e-06 -5.931974976713799e-03
-7.920931109622496e-06 -2.263407343921593e-07 -7.638063829077502e-03
-1.027834913190699e-05 -3.750864957756744e-07 -5.925984755213924e-03
2.263289911227264e-05 -4.257381900192712e-06 -5.931861008088199e-03
7.937097989688850e-06 -2.228459426396852e-07 -7.638142871370472e-03
1.026167526775375e-05 -3.595973789220884e-07 -5.925751577538695e-03
        </DataArray>
      </PointData>

    </Piece>
  </UnstructuredGrid>
</VTKFile>
