<?xml version="1.0" ?> 
<!-- 
# vtk DataFile Version 3.0
-->
<VTKFile type="UnstructuredGrid" version="0.1" compressor="vtkZLibDataCompressor" byte_order="LittleEndian">
  <UnstructuredGrid>
    <FieldData>
      <DataArray type="Float64" Name="TIME" NumberOfTuples="1" format="ascii">
1.500000000000000e+00 
      </DataArray>
      <DataArray type="Float64" Name="tangent_stiffness_tensor_cmat" NumberOfTuples="1" NumberOfComponents="36" format="ascii">
1.111111111111111e+01 2.777777777777777e+00 2.777777777777777e+00 2.408080321382002e-17 3.299230070971697e-17 -8.504891425997150e-17 2.777777777777776e+00 1.111111111111111e+01 2.777777777777776e+00 1.511255846285377e-16 2.570529009996763e-16 4.112189772189402e-18 2.777777777777777e+00 2.777777777777779e+00 1.111111111111128e+01 3.139457717168339e-17 6.261683419642055e-17 -1.629429780901170e-16 2.563912606578753e-16 3.180987259164524e-16 2.748060313047153e-18 4.166666666666665e+00 5.188180908822454e-17 -1.989628375194292e-17 5.523337138033784e-17 -1.209454350401269e-18 -2.230066330281771e-16 -1.167717648845514e-16 4.166666666666718e+00 -1.123932800933937e-16 -3.141153844657738e-16 6.203276819686745e-17 3.068461963891013e-16 -1.755966554222553e-17 -5.948929532144540e-17 4.166666666666717e+00 
      </DataArray>
    </FieldData>

    <Piece NumberOfPoints="216" NumberOfCells="27" >
      <Points>
        <DataArray type="Float64" NumberOfComponents="3" format="ascii">
-1.666666666665666e-01 1.666666666666666e-01 -1.666666666666168e-01
-1.666666666665992e-01 5.000000000000000e-01 -1.666666666665994e-01
-1.666666666666666e-01 5.000000000000000e-01 -5.000000000000000e-01
-1.666666666666667e-01 1.666666666666667e-01 -5.000000000000000e-01
-5.000000000000000e-01 1.666666666666667e-01 -1.666666666664732e-01
-5.000000000000000e-01 5.000000000000000e-01 -1.666666666666667e-01
-5.000000000000000e-01 5.000000000000000e-01 -5.000000000000000e-01
-5.000000000000000e-01 1.666666666666667e-01 -5.000000000000000e-01
-1.666666666665060e-01 -1.666666666666665e-01 -1.666666666666491e-01
-1.666666666665666e-01 1.666666666666666e-01 -1.666666666666168e-01
-1.666666666666667e-01 1.666666666666667e-01 -5.000000000000000e-01
-1.666666666666667e-01 -1.666666666666664e-01 -5.000000000000000e-01
-5.000000000000000e-01 -1.666666666665992e-01 -1.666666666665994e-01
-5.000000000000000e-01 1.666666666666667e-01 -1.666666666664732e-01
-5.000000000000000e-01 1.666666666666667e-01 -5.000000000000000e-01
-5.000000000000000e-01 -1.666666666666666e-01 -5.000000000000000e-01
-1.666666666664732e-01 -5.000000000000000e-01 -1.666666666666665e-01
-1.666666666665060e-01 -1.666666666666665e-01 -1.666666666666491e-01
-1.666666666666667e-01 -1.666666666666664e-01 -5.000000000000000e-01
-1.666666666666667e-01 -5.000000000000000e-01 -5.000000000000000e-01
-5.000000000000000e-01 -5.000000000000000e-01 -1.666666666666667e-01
-5.000000000000000e-01 -1.666666666665992e-01 -1.666666666665994e-01
-5.000000000000000e-01 -1.666666666666666e-01 -5.000000000000000e-01
-5.000000000000000e-01 -5.000000000000000e-01 -5.000000000000000e-01
-1.666666666665058e-01 1.666666666666665e-01 1.666666666669104e-01
-1.666666666664732e-01 5.000000000000000e-01 1.666666666669280e-01
-1.666666666665992e-01 5.000000000000000e-01 -1.666666666665994e-01
-1.666666666665666e-01 1.666666666666666e-01 -1.666666666666168e-01
-5.000000000000000e-01 1.666666666666667e-01 1.666666666669281e-01
-5.000000000000000e-01 5.000000000000000e-01 1.666666666666666e-01
-5.000000000000000e-01 5.000000000000000e-01 -1.666666666666667e-01
-5.000000000000000e-01 1.666666666666667e-01 -1.666666666664732e-01
-1.666666666665663e-01 -1.666666666666666e-01 1.666666666668778e-01
-1.666666666665058e-01 1.666666666666665e-01 1.666666666669104e-01
-1.666666666665666e-01 1.666666666666666e-01 -1.666666666666168e-01
-1.666666666665060e-01 -1.666666666666665e-01 -1.666666666666491e-01
-5.000000000000000e-01 -1.666666666664732e-01 1.666666666669280e-01
-5.000000000000000e-01 1.666666666666667e-01 1.666666666669281e-01
-5.000000000000000e-01 1.666666666666667e-01 -1.666666666664732e-01
-5.000000000000000e-01 -1.666666666665992e-01 -1.666666666665994e-01
-1.666666666665989e-01 -5.000000000000000e-01 1.666666666668602e-01
-1.666666666665663e-01 -1.666666666666666e-01 1.666666666668778e-01
-1.666666666665060e-01 -1.666666666666665e-01 -1.666666666666491e-01
-1.666666666664732e-01 -5.000000000000000e-01 -1.666666666666665e-01
-5.000000000000000e-01 -5.000000000000000e-01 1.666666666666666e-01
-5.000000000000000e-01 -1.666666666664732e-01 1.666666666669280e-01
-5.000000000000000e-01 -1.666666666665992e-01 -1.666666666665994e-01
-5.000000000000000e-01 -5.000000000000000e-01 -1.666666666666667e-01
-1.666666666666667e-01 1.666666666666664e-01 5.000000000000000e-01
-1.666666666666666e-01 5.000000000000000e-01 5.000000000000000e-01
-1.666666666664732e-01 5.000000000000000e-01 1.666666666669280e-01
-1.666666666665058e-01 1.666666666666665e-01 1.666666666669104e-01
-5.000000000000000e-01 1.666666666666667e-01 5.000000000000000e-01
-5.000000000000000e-01 5.000000000000000e-01 5.000000000000000e-01
-5.000000000000000e-01 5.000000000000000e-01 1.666666666666666e-01
-5.000000000000000e-01 1.666666666666667e-01 1.666666666669281e-01
-1.666666666666667e-01 -1.666666666666667e-01 5.000000000000000e-01
-1.666666666666667e-01 1.666666666666664e-01 5.000000000000000e-01
-1.666666666665058e-01 1.666666666666665e-01 1.666666666669104e-01
-1.666666666665663e-01 -1.666666666666666e-01 1.666666666668778e-01
-5.000000000000000e-01 -1.666666666666666e-01 5.000000000000000e-01
-5.000000000000000e-01 1.666666666666667e-01 5.000000000000000e-01
-5.000000000000000e-01 1.666666666666667e-01 1.666666666669281e-01
-5.000000000000000e-01 -1.666666666664732e-01 1.666666666669280e-01
-1.666666666666667e-01 -5.000000000000000e-01 5.000000000000000e-01
-1.666666666666667e-01 -1.666666666666667e-01 5.000000000000000e-01
-1.666666666665663e-01 -1.666666666666666e-01 1.666666666668778e-01
-1.666666666665989e-01 -5.000000000000000e-01 1.666666666668602e-01
-5.000000000000000e-01 -5.000000000000000e-01 5.000000000000000e-01
-5.000000000000000e-01 -1.666666666666666e-01 5.000000000000000e-01
-5.000000000000000e-01 -1.666666666664732e-01 1.666666666669280e-01
-5.000000000000000e-01 -5.000000000000000e-01 1.666666666666666e-01
1.666666666666665e-01 1.666666666666666e-01 -1.666666666665234e-01
1.666666666666667e-01 5.000000000000000e-01 -1.666666666664732e-01
1.666666666666667e-01 5.000000000000000e-01 -5.000000000000000e-01
1.666666666666665e-01 1.666666666666667e-01 -5.000000000000000e-01
-1.666666666665666e-01 1.666666666666666e-01 -1.666666666666168e-01
-1.666666666665992e-01 5.000000000000000e-01 -1.666666666665994e-01
-1.666666666666666e-01 5.000000000000000e-01 -5.000000000000000e-01
-1.666666666666667e-01 1.666666666666667e-01 -5.000000000000000e-01
1.666666666666664e-01 -1.666666666666665e-01 -1.666666666666166e-01
1.666666666666665e-01 1.666666666666666e-01 -1.666666666665234e-01
1.666666666666665e-01 1.666666666666667e-01 -5.000000000000000e-01
1.666666666666665e-01 -1.666666666666664e-01 -5.000000000000000e-01
-1.666666666665060e-01 -1.666666666666665e-01 -1.666666666666491e-01
-1.666666666665666e-01 1.666666666666666e-01 -1.666666666666168e-01
-1.666666666666667e-01 1.666666666666667e-01 -5.000000000000000e-01
-1.666666666666667e-01 -1.666666666666664e-01 -5.000000000000000e-01
1.666666666666664e-01 -5.000000000000000e-01 -1.666666666666667e-01
1.666666666666664e-01 -1.666666666666665e-01 -1.666666666666166e-01
1.666666666666665e-01 -1.666666666666664e-01 -5.000000000000000e-01
1.666666666666666e-01 -5.000000000000000e-01 -5.000000000000000e-01
-1.666666666664732e-01 -5.000000000000000e-01 -1.666666666666665e-01
-1.666666666665060e-01 -1.666666666666665e-01 -1.666666666666491e-01
-1.666666666666667e-01 -1.666666666666664e-01 -5.000000000000000e-01
-1.666666666666667e-01 -5.000000000000000e-01 -5.000000000000000e-01
1.666666666666665e-01 1.666666666666665e-01 1.666666666668779e-01
1.666666666666667e-01 5.000000000000000e-01 1.666666666669281e-01
1.666666666666667e-01 5.000000000000000e-01 -1.666666666664732e-01
1.666666666666665e-01 1.666666666666666e-01 -1.666666666665234e-01
-1.666666666665058e-01 1.666666666666665e-01 1.666666666669104e-01
-1.666666666664732e-01 5.000000000000000e-01 1.666666666669280e-01
-1.666666666665992e-01 5.000000000000000e-01 -1.666666666665994e-01
-1.666666666665666e-01 1.666666666666666e-01 -1.666666666666168e-01
1.666666666666665e-01 -1.666666666666666e-01 1.666666666667846e-01
1.666666666666665e-01 1.666666666666665e-01 1.666666666668779e-01
1.666666666666665e-01 1.666666666666666e-01 -1.666666666665234e-01
1.666666666666664e-01 -1.666666666666665e-01 -1.666666666666166e-01
-1.666666666665663e-01 -1.666666666666666e-01 1.666666666668778e-01
-1.666666666665058e-01 1.666666666666665e-01 1.666666666669104e-01
-1.666666666665666e-01 1.666666666666666e-01 -1.666666666666168e-01
-1.666666666665060e-01 -1.666666666666665e-01 -1.666666666666491e-01
1.666666666666667e-01 -5.000000000000000e-01 1.666666666667344e-01
1.666666666666665e-01 -1.666666666666666e-01 1.666666666667846e-01
1.666666666666664e-01 -1.666666666666665e-01 -1.666666666666166e-01
1.666666666666664e-01 -5.000000000000000e-01 -1.666666666666667e-01
-1.666666666665989e-01 -5.000000000000000e-01 1.666666666668602e-01
-1.666666666665663e-01 -1.666666666666666e-01 1.666666666668778e-01
-1.666666666665060e-01 -1.666666666666665e-01 -1.666666666666491e-01
-1.666666666664732e-01 -5.000000000000000e-01 -1.666666666666665e-01
1.666666666666665e-01 1.666666666666664e-01 5.000000000000000e-01
1.666666666666667e-01 5.000000000000000e-01 5.000000000000000e-01
1.666666666666667e-01 5.000000000000000e-01 1.666666666669281e-01
1.666666666666665e-01 1.666666666666665e-01 1.666666666668779e-01
-1.666666666666667e-01 1.666666666666664e-01 5.000000000000000e-01
-1.666666666666666e-01 5.000000000000000e-01 5.000000000000000e-01
-1.666666666664732e-01 5.000000000000000e-01 1.666666666669280e-01
-1.666666666665058e-01 1.666666666666665e-01 1.666666666669104e-01
1.666666666666665e-01 -1.666666666666667e-01 5.000000000000000e-01
1.666666666666665e-01 1.666666666666664e-01 5.000000000000000e-01
1.666666666666665e-01 1.666666666666665e-01 1.666666666668779e-01
1.666666666666665e-01 -1.666666666666666e-01 1.666666666667846e-01
-1.666666666666667e-01 -1.666666666666667e-01 5.000000000000000e-01
-1.666666666666667e-01 1.666666666666664e-01 5.000000000000000e-01
-1.666666666665058e-01 1.666666666666665e-01 1.666666666669104e-01
-1.666666666665663e-01 -1.666666666666666e-01 1.666666666668778e-01
1.666666666666666e-01 -5.000000000000000e-01 5.000000000000000e-01
1.666666666666665e-01 -1.666666666666667e-01 5.000000000000000e-01
1.666666666666665e-01 -1.666666666666666e-01 1.666666666667846e-01
1.666666666666667e-01 -5.000000000000000e-01 1.666666666667344e-01
-1.666666666666667e-01 -5.000000000000000e-01 5.000000000000000e-01
-1.666666666666667e-01 -1.666666666666667e-01 5.000000000000000e-01
-1.666666666665663e-01 -1.666666666666666e-01 1.666666666668778e-01
-1.666666666665989e-01 -5.000000000000000e-01 1.666666666668602e-01
5.000000000000000e-01 1.666666666666664e-01 -1.666666666666667e-01
5.000000000000000e-01 5.000000000000000e-01 -1.666666666666667e-01
5.000000000000000e-01 5.000000000000000e-01 -5.000000000000000e-01
5.000000000000000e-01 1.666666666666666e-01 -5.000000000000000e-01
1.666666666666665e-01 1.666666666666666e-01 -1.666666666665234e-01
1.666666666666667e-01 5.000000000000000e-01 -1.666666666664732e-01
1.666666666666667e-01 5.000000000000000e-01 -5.000000000000000e-01
1.666666666666665e-01 1.666666666666667e-01 -5.000000000000000e-01
5.000000000000000e-01 -1.666666666664732e-01 -1.666666666666665e-01
5.000000000000000e-01 1.666666666666664e-01 -1.666666666666667e-01
5.000000000000000e-01 1.666666666666666e-01 -5.000000000000000e-01
5.000000000000000e-01 -1.666666666666667e-01 -5.000000000000000e-01
1.666666666666664e-01 -1.666666666666665e-01 -1.666666666666166e-01
1.666666666666665e-01 1.666666666666666e-01 -1.666666666665234e-01
1.666666666666665e-01 1.666666666666667e-01 -5.000000000000000e-01
1.666666666666665e-01 -1.666666666666664e-01 -5.000000000000000e-01
5.000000000000000e-01 -5.000000000000000e-01 -1.666666666666667e-01
5.000000000000000e-01 -1.666666666664732e-01 -1.666666666666665e-01
5.000000000000000e-01 -1.666666666666667e-01 -5.000000000000000e-01
5.000000000000000e-01 -5.000000000000000e-01 -5.000000000000000e-01
1.666666666666664e-01 -5.000000000000000e-01 -1.666666666666667e-01
1.666666666666664e-01 -1.666666666666665e-01 -1.666666666666166e-01
1.666666666666665e-01 -1.666666666666664e-01 -5.000000000000000e-01
1.666666666666666e-01 -5.000000000000000e-01 -5.000000000000000e-01
5.000000000000000e-01 1.666666666666667e-01 1.666666666667344e-01
5.000000000000000e-01 5.000000000000000e-01 1.666666666666666e-01
5.000000000000000e-01 5.000000000000000e-01 -1.666666666666667e-01
5.000000000000000e-01 1.666666666666664e-01 -1.666666666666667e-01
1.666666666666665e-01 1.666666666666665e-01 1.666666666668779e-01
1.666666666666667e-01 5.000000000000000e-01 1.666666666669281e-01
1.666666666666667e-01 5.000000000000000e-01 -1.666666666664732e-01
1.666666666666665e-01 1.666666666666666e-01 -1.666666666665234e-01
5.000000000000000e-01 -1.666666666665989e-01 1.666666666668602e-01
5.000000000000000e-01 1.666666666666667e-01 1.666666666667344e-01
5.000000000000000e-01 1.666666666666664e-01 -1.666666666666667e-01
5.000000000000000e-01 -1.666666666664732e-01 -1.666666666666665e-01
1.666666666666665e-01 -1.666666666666666e-01 1.666666666667846e-01
1.666666666666665e-01 1.666666666666665e-01 1.666666666668779e-01
1.666666666666665e-01 1.666666666666666e-01 -1.666666666665234e-01
1.666666666666664e-01 -1.666666666666665e-01 -1.666666666666166e-01
5.000000000000000e-01 -5.000000000000000e-01 1.666666666666666e-01
5.000000000000000e-01 -1.666666666665989e-01 1.666666666668602e-01
5.000000000000000e-01 -1.666666666664732e-01 -1.666666666666665e-01
5.000000000000000e-01 -5.000000000000000e-01 -1.666666666666667e-01
1.666666666666667e-01 -5.000000000000000e-01 1.666666666667344e-01
1.666666666666665e-01 -1.666666666666666e-01 1.666666666667846e-01
1.666666666666664e-01 -1.666666666666665e-01 -1.666666666666166e-01
1.666666666666664e-01 -5.000000000000000e-01 -1.666666666666667e-01
5.000000000000000e-01 1.666666666666666e-01 5.000000000000000e-01
5.000000000000000e-01 5.000000000000000e-01 5.000000000000000e-01
5.000000000000000e-01 5.000000000000000e-01 1.666666666666666e-01
5.000000000000000e-01 1.666666666666667e-01 1.666666666667344e-01
1.666666666666665e-01 1.666666666666664e-01 5.000000000000000e-01
1.666666666666667e-01 5.000000000000000e-01 5.000000000000000e-01
1.666666666666667e-01 5.000000000000000e-01 1.666666666669281e-01
1.666666666666665e-01 1.666666666666665e-01 1.666666666668779e-01
5.000000000000000e-01 -1.666666666666667e-01 5.000000000000000e-01
5.000000000000000e-01 1.666666666666666e-01 5.000000000000000e-01
5.000000000000000e-01 1.666666666666667e-01 1.666666666667344e-01
5.000000000000000e-01 -1.666666666665989e-01 1.666666666668602e-01
1.666666666666665e-01 -1.666666666666667e-01 5.000000000000000e-01
1.666666666666665e-01 1.666666666666664e-01 5.000000000000000e-01
1.666666666666665e-01 1.666666666666665e-01 1.666666666668779e-01
1.666666666666665e-01 -1.666666666666666e-01 1.666666666667846e-01
5.000000000000000e-01 -5.000000000000000e-01 5.000000000000000e-01
5.000000000000000e-01 -1.666666666666667e-01 5.000000000000000e-01
5.000000000000000e-01 -1.666666666665989e-01 1.666666666668602e-01
5.000000000000000e-01 -5.000000000000000e-01 1.666666666666666e-01
1.666666666666666e-01 -5.000000000000000e-01 5.000000000000000e-01
1.666666666666665e-01 -1.666666666666667e-01 5.000000000000000e-01
1.666666666666665e-01 -1.666666666666666e-01 1.666666666667846e-01
1.666666666666667e-01 -5.000000000000000e-01 1.666666666667344e-01
        </DataArray>
      </Points>

      <Cells>
        <DataArray type="Int32" Name="connectivity" format="ascii">
0 1 2 3 4 5 6 7 8 9 10 11 12 13 14 15 16 17 18 19 20 21 22 23 24 25 26 27 28 29 30 31 32 33 34 35 36 37 38 39 40 41 42 43 44 45 46 47 48 49 50 51 52 53 54 55 56 57 58 59 60 61 62 63 64 65 66 67 68 69 70 71 72 73 74 75 76 77 78 79 80 81 82 83 84 85 86 87 88 89 90 91 92 93 94 95 96 97 98 99 100 101 102 103 104 105 106 107 108 109 110 111 112 113 114 115 116 117 118 119 120 121 122 123 124 125 126 127 128 129 130 131 132 133 134 135 136 137 138 139 140 141 142 143 144 145 146 147 148 149 150 151 152 153 154 155 156 157 158 159 160 161 162 163 164 165 166 167 168 169 170 171 172 173 174 175 176 177 178 179 180 181 182 183 184 185 186 187 188 189 190 191 192 193 194 195 196 197 198 199 200 201 202 203 204 205 206 207 208 209 210 211 212 213 214 215 
        </DataArray>
        <DataArray type="Int32" Name="offsets" format="ascii">
8 16 24 32 40 48 56 64 72 80 88 96 104 112 120 128 136 144 152 160 168 176 184 192 200 208 216 
        </DataArray>
        <DataArray type="UInt8" Name="types" format="ascii">
12 12 12 12 12 12 12 12 12 12 12 12 12 12 12 12 12 12 12 12 12 12 12 12 12 12 12 
        </DataArray>
      </Cells>

  <PointData>
        <DataArray type="Float64" Name="rve_elem_5_gp_0_displacement" NumberOfComponents="3" format="ascii">
3.724126511868828e-03 -3.724126511871068e-03 -1.565745553016717e-02
3.724126511868558e-03 -1.117237953561024e-02 -1.565745553015117e-02
3.724126511870079e-03 -1.117237953561023e-02 -4.697236659047229e-02
3.724126511870094e-03 -3.724126511870081e-03 -4.697236659047225e-02
1.117237953561023e-02 -3.724126511870104e-03 -1.565745553013928e-02
1.117237953561022e-02 -1.117237953561026e-02 -1.565745553015751e-02
1.117237953561024e-02 -1.117237953561025e-02 -4.697236659047231e-02
1.117237953561025e-02 -3.724126511870100e-03 -4.697236659047226e-02
3.724126511867461e-03 3.724126511871095e-03 -1.565745553017013e-02
3.724126511868828e-03 -3.724126511871068e-03 -1.565745553016717e-02
3.724126511870094e-03 -3.724126511870081e-03 -4.697236659047225e-02
3.724126511870107e-03 3.724126511870070e-03 -4.697236659047220e-02
1.117237953561025e-02 3.724126511868545e-03 -1.565745553015109e-02
1.117237953561023e-02 -3.724126511870104e-03 -1.565745553013928e-02
1.117237953561025e-02 -3.724126511870100e-03 -4.697236659047226e-02
1.117237953561026e-02 3.724126511870055e-03 -4.697236659047222e-02
3.724126511865781e-03 1.117237953561023e-02 -1.565745553015733e-02
3.724126511867461e-03 3.724126511871095e-03 -1.565745553017013e-02
3.724126511870107e-03 3.724126511870070e-03 -4.697236659047220e-02
3.724126511870120e-03 1.117237953561023e-02 -4.697236659047215e-02
1.117237953561026e-02 1.117237953561021e-02 -1.565745553015737e-02
1.117237953561025e-02 3.724126511868545e-03 -1.565745553015109e-02
1.117237953561026e-02 3.724126511870055e-03 -4.697236659047222e-02
1.117237953561027e-02 1.117237953561021e-02 -4.697236659047217e-02
3.724126511867457e-03 -3.724126511871040e-03 1.565745553019469e-02
3.724126511865728e-03 -1.117237953561024e-02 1.565745553018187e-02
3.724126511868558e-03 -1.117237953561024e-02 -1.565745553015117e-02
3.724126511868828e-03 -3.724126511871068e-03 -1.565745553016717e-02
1.117237953561022e-02 -3.724126511870109e-03 1.565745553018191e-02
1.117237953561021e-02 -1.117237953561026e-02 1.565745553015730e-02
1.117237953561022e-02 -1.117237953561026e-02 -1.565745553015751e-02
1.117237953561023e-02 -3.724126511870104e-03 -1.565745553013928e-02
3.724126511868815e-03 3.724126511871036e-03 1.565745553019164e-02
3.724126511867457e-03 -3.724126511871040e-03 1.565745553019469e-02
3.724126511868828e-03 -3.724126511871068e-03 -1.565745553016717e-02
3.724126511867461e-03 3.724126511871095e-03 -1.565745553017013e-02
1.117237953561023e-02 3.724126511865725e-03 1.565745553018195e-02
1.117237953561022e-02 -3.724126511870109e-03 1.565745553018191e-02
1.117237953561023e-02 -3.724126511870104e-03 -1.565745553013928e-02
1.117237953561025e-02 3.724126511868545e-03 -1.565745553015109e-02
3.724126511868576e-03 1.117237953561022e-02 1.565745553017564e-02
3.724126511868815e-03 3.724126511871036e-03 1.565745553019164e-02
3.724126511867461e-03 3.724126511871095e-03 -1.565745553017013e-02
3.724126511865781e-03 1.117237953561023e-02 -1.565745553015733e-02
1.117237953561025e-02 1.117237953561020e-02 1.565745553015744e-02
1.117237953561023e-02 3.724126511865725e-03 1.565745553018195e-02
1.117237953561025e-02 3.724126511868545e-03 -1.565745553015109e-02
1.117237953561026e-02 1.117237953561021e-02 -1.565745553015737e-02
3.724126511870050e-03 -3.724126511870088e-03 4.697236659047218e-02
3.724126511870035e-03 -1.117237953561025e-02 4.697236659047214e-02
3.724126511865728e-03 -1.117237953561024e-02 1.565745553018187e-02
3.724126511867457e-03 -3.724126511871040e-03 1.565745553019469e-02
1.117237953561020e-02 -3.724126511870113e-03 4.697236659047217e-02
1.117237953561019e-02 -1.117237953561027e-02 4.697236659047212e-02
1.117237953561021e-02 -1.117237953561026e-02 1.565745553015730e-02
1.117237953561022e-02 -3.724126511870109e-03 1.565745553018191e-02
3.724126511870063e-03 3.724126511870063e-03 4.697236659047223e-02
3.724126511870050e-03 -3.724126511870088e-03 4.697236659047218e-02
3.724126511867457e-03 -3.724126511871040e-03 1.565745553019469e-02
3.724126511868815e-03 3.724126511871036e-03 1.565745553019164e-02
1.117237953561022e-02 3.724126511870041e-03 4.697236659047221e-02
1.117237953561020e-02 -3.724126511870113e-03 4.697236659047217e-02
1.117237953561022e-02 -3.724126511870109e-03 1.565745553018191e-02
1.117237953561023e-02 3.724126511865725e-03 1.565745553018195e-02
3.724126511870076e-03 1.117237953561022e-02 4.697236659047228e-02
3.724126511870063e-03 3.724126511870063e-03 4.697236659047223e-02
3.724126511868815e-03 3.724126511871036e-03 1.565745553019164e-02
3.724126511868576e-03 1.117237953561022e-02 1.565745553017564e-02
1.117237953561023e-02 1.117237953561020e-02 4.697236659047226e-02
1.117237953561022e-02 3.724126511870041e-03 4.697236659047221e-02
1.117237953561023e-02 3.724126511865725e-03 1.565745553018195e-02
1.117237953561025e-02 1.117237953561020e-02 1.565745553015744e-02
-3.724126511871062e-03 -3.724126511871014e-03 -1.565745553015837e-02
-3.724126511870091e-03 -1.117237953561022e-02 -1.565745553013929e-02
-3.724126511870076e-03 -1.117237953561022e-02 -4.697236659047228e-02
-3.724126511870058e-03 -3.724126511870063e-03 -4.697236659047223e-02
3.724126511868828e-03 -3.724126511871068e-03 -1.565745553016717e-02
3.724126511868558e-03 -1.117237953561024e-02 -1.565745553015117e-02
3.724126511870079e-03 -1.117237953561023e-02 -4.697236659047229e-02
3.724126511870094e-03 -3.724126511870081e-03 -4.697236659047225e-02
-3.724126511871034e-03 3.724126511871102e-03 -1.565745553016707e-02
-3.724126511871062e-03 -3.724126511871014e-03 -1.565745553015837e-02
-3.724126511870058e-03 -3.724126511870063e-03 -4.697236659047223e-02
-3.724126511870045e-03 3.724126511870088e-03 -4.697236659047218e-02
3.724126511867461e-03 3.724126511871095e-03 -1.565745553017013e-02
3.724126511868828e-03 -3.724126511871068e-03 -1.565745553016717e-02
3.724126511870094e-03 -3.724126511870081e-03 -4.697236659047225e-02
3.724126511870107e-03 3.724126511870070e-03 -4.697236659047220e-02
-3.724126511870045e-03 1.117237953561024e-02 -1.565745553015733e-02
-3.724126511871034e-03 3.724126511871102e-03 -1.565745553016707e-02
-3.724126511870045e-03 3.724126511870088e-03 -4.697236659047218e-02
-3.724126511870035e-03 1.117237953561025e-02 -4.697236659047214e-02
3.724126511865781e-03 1.117237953561023e-02 -1.565745553015733e-02
3.724126511867461e-03 3.724126511871095e-03 -1.565745553017013e-02
3.724126511870107e-03 3.724126511870070e-03 -4.697236659047220e-02
3.724126511870120e-03 1.117237953561023e-02 -4.697236659047215e-02
-3.724126511871068e-03 -3.724126511871083e-03 1.565745553019166e-02
-3.724126511870106e-03 -1.117237953561023e-02 1.565745553018191e-02
-3.724126511870091e-03 -1.117237953561022e-02 -1.565745553013929e-02
-3.724126511871062e-03 -3.724126511871014e-03 -1.565745553015837e-02
3.724126511867457e-03 -3.724126511871040e-03 1.565745553019469e-02
3.724126511865728e-03 -1.117237953561024e-02 1.565745553018187e-02
3.724126511868558e-03 -1.117237953561024e-02 -1.565745553015117e-02
3.724126511868828e-03 -3.724126511871068e-03 -1.565745553016717e-02
-3.724126511871045e-03 3.724126511871104e-03 1.565745553018293e-02
-3.724126511871068e-03 -3.724126511871083e-03 1.565745553019166e-02
-3.724126511871062e-03 -3.724126511871014e-03 -1.565745553015837e-02
-3.724126511871034e-03 3.724126511871102e-03 -1.565745553016707e-02
3.724126511868815e-03 3.724126511871036e-03 1.565745553019164e-02
3.724126511867457e-03 -3.724126511871040e-03 1.565745553019469e-02
3.724126511868828e-03 -3.724126511871068e-03 -1.565745553016717e-02
3.724126511867461e-03 3.724126511871095e-03 -1.565745553017013e-02
-3.724126511870067e-03 1.117237953561024e-02 1.565745553016385e-02
-3.724126511871045e-03 3.724126511871104e-03 1.565745553018293e-02
-3.724126511871034e-03 3.724126511871102e-03 -1.565745553016707e-02
-3.724126511870045e-03 1.117237953561024e-02 -1.565745553015733e-02
3.724126511868576e-03 1.117237953561022e-02 1.565745553017564e-02
3.724126511868815e-03 3.724126511871036e-03 1.565745553019164e-02
3.724126511867461e-03 3.724126511871095e-03 -1.565745553017013e-02
3.724126511865781e-03 1.117237953561023e-02 -1.565745553015733e-02
-3.724126511870102e-03 -3.724126511870070e-03 4.697236659047220e-02
-3.724126511870120e-03 -1.117237953561023e-02 4.697236659047215e-02
-3.724126511870106e-03 -1.117237953561023e-02 1.565745553018191e-02
-3.724126511871068e-03 -3.724126511871083e-03 1.565745553019166e-02
3.724126511870050e-03 -3.724126511870088e-03 4.697236659047218e-02
3.724126511870035e-03 -1.117237953561025e-02 4.697236659047214e-02
3.724126511865728e-03 -1.117237953561024e-02 1.565745553018187e-02
3.724126511867457e-03 -3.724126511871040e-03 1.565745553019469e-02
-3.724126511870089e-03 3.724126511870081e-03 4.697236659047225e-02
-3.724126511870102e-03 -3.724126511870070e-03 4.697236659047220e-02
-3.724126511871068e-03 -3.724126511871083e-03 1.565745553019166e-02
-3.724126511871045e-03 3.724126511871104e-03 1.565745553018293e-02
3.724126511870063e-03 3.724126511870063e-03 4.697236659047223e-02
3.724126511870050e-03 -3.724126511870088e-03 4.697236659047218e-02
3.724126511867457e-03 -3.724126511871040e-03 1.565745553019469e-02
3.724126511868815e-03 3.724126511871036e-03 1.565745553019164e-02
-3.724126511870079e-03 1.117237953561023e-02 4.697236659047229e-02
-3.724126511870089e-03 3.724126511870081e-03 4.697236659047225e-02
-3.724126511871045e-03 3.724126511871104e-03 1.565745553018293e-02
-3.724126511870067e-03 1.117237953561024e-02 1.565745553016385e-02
3.724126511870076e-03 1.117237953561022e-02 4.697236659047228e-02
3.724126511870063e-03 3.724126511870063e-03 4.697236659047223e-02
3.724126511868815e-03 3.724126511871036e-03 1.565745553019164e-02
3.724126511868576e-03 1.117237953561022e-02 1.565745553017564e-02
-1.117237953561023e-02 -3.724126511870042e-03 -1.565745553015740e-02
-1.117237953561025e-02 -1.117237953561020e-02 -1.565745553015745e-02
-1.117237953561023e-02 -1.117237953561020e-02 -4.697236659047226e-02
-1.117237953561022e-02 -3.724126511870041e-03 -4.697236659047221e-02
-3.724126511871062e-03 -3.724126511871014e-03 -1.565745553015837e-02
-3.724126511870091e-03 -1.117237953561022e-02 -1.565745553013929e-02
-3.724126511870076e-03 -1.117237953561022e-02 -4.697236659047228e-02
-3.724126511870058e-03 -3.724126511870063e-03 -4.697236659047223e-02
-1.117237953561022e-02 3.724126511865784e-03 -1.565745553015734e-02
-1.117237953561023e-02 -3.724126511870042e-03 -1.565745553015740e-02
-1.117237953561022e-02 -3.724126511870041e-03 -4.697236659047221e-02
-1.117237953561020e-02 3.724126511870113e-03 -4.697236659047217e-02
-3.724126511871034e-03 3.724126511871102e-03 -1.565745553016707e-02
-3.724126511871062e-03 -3.724126511871014e-03 -1.565745553015837e-02
-3.724126511870058e-03 -3.724126511870063e-03 -4.697236659047223e-02
-3.724126511870045e-03 3.724126511870088e-03 -4.697236659047218e-02
-1.117237953561021e-02 1.117237953561026e-02 -1.565745553015731e-02
-1.117237953561022e-02 3.724126511865784e-03 -1.565745553015734e-02
-1.117237953561020e-02 3.724126511870113e-03 -4.697236659047217e-02
-1.117237953561019e-02 1.117237953561027e-02 -4.697236659047212e-02
-3.724126511870045e-03 1.117237953561024e-02 -1.565745553015733e-02
-3.724126511871034e-03 3.724126511871102e-03 -1.565745553016707e-02
-3.724126511870045e-03 3.724126511870088e-03 -4.697236659047218e-02
-3.724126511870035e-03 1.117237953561025e-02 -4.697236659047214e-02
-1.117237953561025e-02 -3.724126511870053e-03 1.565745553016377e-02
-1.117237953561026e-02 -1.117237953561021e-02 1.565745553015736e-02
-1.117237953561025e-02 -1.117237953561020e-02 -1.565745553015745e-02
-1.117237953561023e-02 -3.724126511870042e-03 -1.565745553015740e-02
-3.724126511871068e-03 -3.724126511871083e-03 1.565745553019166e-02
-3.724126511870106e-03 -1.117237953561023e-02 1.565745553018191e-02
-3.724126511870091e-03 -1.117237953561022e-02 -1.565745553013929e-02
-3.724126511871062e-03 -3.724126511871014e-03 -1.565745553015837e-02
-1.117237953561023e-02 3.724126511868589e-03 1.565745553017564e-02
-1.117237953561025e-02 -3.724126511870053e-03 1.565745553016377e-02
-1.117237953561023e-02 -3.724126511870042e-03 -1.565745553015740e-02
-1.117237953561022e-02 3.724126511865784e-03 -1.565745553015734e-02
-3.724126511871045e-03 3.724126511871104e-03 1.565745553018293e-02
-3.724126511871068e-03 -3.724126511871083e-03 1.565745553019166e-02
-3.724126511871062e-03 -3.724126511871014e-03 -1.565745553015837e-02
-3.724126511871034e-03 3.724126511871102e-03 -1.565745553016707e-02
-1.117237953561022e-02 1.117237953561026e-02 1.565745553015749e-02
-1.117237953561023e-02 3.724126511868589e-03 1.565745553017564e-02